<?xml version="1.0"?>
<VTKFile type="UnstructuredGrid" version="0.1" byte_order="LittleEndian">
  <UnstructuredGrid>
    <Piece NumberOfPoints="7" NumberOfCells="7">
      <Points>
        <DataArray name="Position" type="Float64" NumberOfComponents="3" Format="ascii">
          0.347385 0.746966 0.0
          0.235189 0.961657 0.0
          0.484835 0.719659 0.0
          0.653475 0.656374 0.0
          0.679479 0.697835 0.0
          0.678169 0.730201 0.0
          0.899482 0.794379 0.0
        </DataArray>
      </Points>
      <Cells>
        <DataArray type="Int32" Name="connectivity" Format="ascii">
          0
          1
          2
          3
          4
          5
          6
        </DataArray>
        <DataArray type="Int32" Name="offsets" Format="ascii">
          1
          2
          3
          4
          5
          6
          7
        </DataArray>
        <DataArray type="UInt8" Name="types" Format="ascii">
          1
          1
          1
          1
          1
          1
          1
        </DataArray>
      </Cells>
      <PointData Scalars="scalars">
        <DataArray type="UInt64" Name="id" NumberOfComponents="1" Format="ascii">
          12
          15
          9
          7
          11
          14
          8
        </DataArray>
        <DataArray type="Float64" Name="function" NumberOfComponents="1" Format="ascii">
          0 
          0 
          0 
          0 
          0 
          0 
          0 
        </DataArray>
        <DataArray type="Float64" Name="initial C_0" NumberOfComponents="1" Format="ascii">
          0 
          0 
          0 
          0 
          0 
          0 
          0 
        </DataArray>
        <DataArray type="Float64" Name="initial position" NumberOfComponents="3" Format="ascii">
          0.347385 0.746966 0 
          0.235189 0.961657 0 
          0.484835 0.719659 0 
          0.653475 0.656374 0 
          0.679479 0.697835 0 
          0.678169 0.730201 0 
          0.899482 0.794379 0 
        </DataArray>
      </PointData>
    </Piece>
  </UnstructuredGrid>
</VTKFile>
